 TITLE = "magnetization"
 VARIABLES = "X","Y","Z","Mx","My","Mz", "SD"
 ZONE T="",  N=9566,  E=49697
 F=FEBLOCK, ET=TETRAHEDRON, VARLOCATION=([7]=CELLCENTERED)
   0.2901461E+00   0.2901461E+00   0.2901461E+00   0.2901461E+00   0.2417885E+00   0.2417885E+00  -0.2417885E+00  -0.2417885E+00   0.2417885E+00   0.2417885E+00
  -0.2417885E+00  -0.2417885E+00   0.2417885E+00   0.2417885E+00  -0.2417885E+00  -0.2417885E+00   0.2417885E+00   0.2417885E+00  -0.2417885E+00  -0.2417885E+00
  -0.2625132E+00  -0.2625132E+00  -0.2901461E+00  -0.2901461E+00  -0.2625132E+00  -0.2901461E+00  -0.2901461E+00  -0.2625132E+00   0.2625132E+00   0.2625132E+00
   0.2625132E+00   0.2625132E+00   0.2901461E+00   0.2901461E+00   0.2901461E+00   0.2901461E+00   0.2901461E+00   0.2901461E+00   0.2901461E+00   0.2901461E+00
   0.2417885E+00   0.2417885E+00   0.2417885E+00   0.2328333E+00   0.2238782E+00   0.2149231E+00   0.2059679E+00   0.1970128E+00   0.1880577E+00   0.1791026E+00
   0.1701474E+00   0.1611923E+00   0.1522372E+00   0.1432820E+00   0.1343269E+00   0.1253718E+00   0.1164167E+00   0.1074615E+00   0.9850641E-01   0.8955128E-01
   0.8059615E-01   0.7164102E-01   0.6268590E-01   0.5373077E-01   0.4477564E-01   0.3582051E-01   0.2686538E-01   0.1791026E-01   0.8955128E-02  -0.3330669E-15
  -0.8955128E-02  -0.1791026E-01  -0.2686538E-01  -0.3582051E-01  -0.4477564E-01  -0.5373077E-01  -0.6268590E-01  -0.7164102E-01  -0.8059615E-01  -0.8955128E-01
  -0.9850641E-01  -0.1074615E+00  -0.1164167E+00  -0.1253718E+00  -0.1343269E+00  -0.1432820E+00  -0.1522372E+00  -0.1611923E+00  -0.1701474E+00  -0.1791026E+00
  -0.1880577E+00  -0.1970128E+00  -0.2059679E+00  -0.2149231E+00  -0.2238782E+00  -0.2328333E+00  -0.2417885E+00  -0.2417885E+00  -0.2417885E+00   0.2328333E+00
   0.2238782E+00   0.2149231E+00   0.2059679E+00   0.1970128E+00   0.1880577E+00   0.1791026E+00   0.1701474E+00   0.1611923E+00   0.1522372E+00   0.1432820E+00
   0.1343269E+00   0.1253718E+00   0.1164167E+00   0.1074615E+00   0.9850641E-01   0.8955128E-01   0.8059615E-01   0.7164102E-01   0.6268590E-01   0.5373077E-01
   0.4477564E-01   0.3582051E-01   0.2686538E-01   0.1791026E-01   0.8955128E-02  -0.3330669E-15  -0.8955128E-02  -0.1791026E-01  -0.2686538E-01  -0.3582051E-01
  -0.4477564E-01  -0.5373077E-01  -0.6268590E-01  -0.7164102E-01  -0.8059615E-01  -0.8955128E-01  -0.9850641E-01  -0.1074615E+00  -0.1164167E+00  -0.1253718E+00
  -0.1343269E+00  -0.1432820E+00  -0.1522372E+00  -0.1611923E+00  -0.1701474E+00  -0.1791026E+00  -0.1880577E+00  -0.1970128E+00  -0.2059679E+00  -0.2149231E+00
  -0.2238782E+00  -0.2328333E+00   0.2417885E+00   0.2417885E+00   0.2417885E+00   0.2328333E+00   0.2238782E+00   0.2149231E+00   0.2059679E+00   0.1970128E+00
   0.1880577E+00   0.1791026E+00   0.1701474E+00   0.1611923E+00   0.1522372E+00   0.1432820E+00   0.1343269E+00   0.1253718E+00   0.1164167E+00   0.1074615E+00
   0.9850641E-01   0.8955128E-01   0.8059615E-01   0.7164102E-01   0.6268590E-01   0.5373077E-01   0.4477564E-01   0.3582051E-01   0.2686538E-01   0.1791026E-01
   0.8955128E-02  -0.3330669E-15  -0.8955128E-02  -0.1791026E-01  -0.2686538E-01  -0.3582051E-01  -0.4477564E-01  -0.5373077E-01  -0.6268590E-01  -0.7164102E-01
  -0.8059615E-01  -0.8955128E-01  -0.9850641E-01  -0.1074615E+00  -0.1164167E+00  -0.1253718E+00  -0.1343269E+00  -0.1432820E+00  -0.1522372E+00  -0.1611923E+00
  -0.1701474E+00  -0.1791026E+00  -0.1880577E+00  -0.1970128E+00  -0.2059679E+00  -0.2149231E+00  -0.2238782E+00  -0.2328333E+00  -0.2417885E+00  -0.2417885E+00
  -0.2417885E+00   0.2328333E+00   0.2238782E+00   0.2149231E+00   0.2059679E+00   0.1970128E+00   0.1880577E+00   0.1791026E+00   0.1701474E+00   0.1611923E+00
   0.1522372E+00   0.1432820E+00   0.1343269E+00   0.1253718E+00   0.1164167E+00   0.1074615E+00   0.9850641E-01   0.8955128E-01   0.8059615E-01   0.7164102E-01
   0.6268590E-01   0.5373077E-01   0.4477564E-01   0.3582051E-01   0.2686538E-01   0.1791026E-01   0.8955128E-02  -0.3330669E-15  -0.8955128E-02  -0.1791026E-01
  -0.2686538E-01  -0.3582051E-01  -0.4477564E-01  -0.5373077E-01  -0.6268590E-01  -0.7164102E-01  -0.8059615E-01  -0.8955128E-01  -0.9850641E-01  -0.1074615E+00
  -0.1164167E+00  -0.1253718E+00  -0.1343269E+00  -0.1432820E+00  -0.1522372E+00  -0.1611923E+00  -0.1701474E+00  -0.1791026E+00  -0.1880577E+00  -0.1970128E+00
  -0.2059679E+00  -0.2149231E+00  -0.2238782E+00  -0.2328333E+00   0.2417885E+00   0.2417885E+00   0.2417885E+00   0.2328333E+00   0.2238782E+00   0.2149231E+00
   0.2059679E+00   0.1970128E+00   0.1880577E+00   0.1791026E+00   0.1701474E+00   0.1611923E+00   0.1522372E+00   0.1432820E+00   0.1343269E+00   0.1253718E+00
   0.1164167E+00   0.1074615E+00   0.9850641E-01   0.8955128E-01   0.8059615E-01   0.7164102E-01   0.6268590E-01   0.5373077E-01   0.4477564E-01   0.3582051E-01
   0.2686538E-01   0.1791026E-01   0.8955128E-02  -0.3330669E-15  -0.8955128E-02  -0.1791026E-01  -0.2686538E-01  -0.3582051E-01  -0.4477564E-01  -0.5373077E-01
  -0.6268590E-01  -0.7164102E-01  -0.8059615E-01  -0.8955128E-01  -0.9850641E-01  -0.1074615E+00  -0.1164167E+00  -0.1253718E+00  -0.1343269E+00  -0.1432820E+00
  -0.1522372E+00  -0.1611923E+00  -0.1701474E+00  -0.1791026E+00  -0.1880577E+00  -0.1970128E+00  -0.2059679E+00  -0.2149231E+00  -0.2238782E+00  -0.2328333E+00
  -0.2417885E+00  -0.2417885E+00  -0.2417885E+00   0.2328333E+00   0.2238782E+00   0.2149231E+00   0.2059679E+00   0.1970128E+00   0.1880577E+00   0.1791026E+00
   0.1701474E+00   0.1611923E+00   0.1522372E+00   0.1432820E+00   0.1343269E+00   0.1253718E+00   0.1164167E+00   0.1074615E+00   0.9850641E-01   0.8955128E-01
   0.8059615E-01   0.7164102E-01   0.6268590E-01   0.5373077E-01   0.4477564E-01   0.3582051E-01   0.2686538E-01   0.1791026E-01   0.8955128E-02  -0.3330669E-15
  -0.8955128E-02  -0.1791026E-01  -0.2686538E-01  -0.3582051E-01  -0.4477564E-01  -0.5373077E-01  -0.6268590E-01  -0.7164102E-01  -0.8059615E-01  -0.8955128E-01
  -0.9850641E-01  -0.1074615E+00  -0.1164167E+00  -0.1253718E+00  -0.1343269E+00  -0.1432820E+00  -0.1522372E+00  -0.1611923E+00  -0.1701474E+00  -0.1791026E+00
  -0.1880577E+00  -0.1970128E+00  -0.2059679E+00  -0.2149231E+00  -0.2238782E+00  -0.2328333E+00   0.2417885E+00   0.2417885E+00   0.2417885E+00   0.2328333E+00
   0.2238782E+00   0.2149231E+00   0.2059679E+00   0.1970128E+00   0.1880577E+00   0.1791026E+00   0.1701474E+00   0.1611923E+00   0.1522372E+00   0.1432820E+00
   0.1343269E+00   0.1253718E+00   0.1164167E+00   0.1074615E+00   0.9850641E-01   0.8955128E-01   0.8059615E-01   0.7164102E-01   0.6268590E-01   0.5373077E-01
   0.4477564E-01   0.3582051E-01   0.2686538E-01   0.1791026E-01   0.8955128E-02  -0.3330669E-15  -0.8955128E-02  -0.1791026E-01  -0.2686538E-01  -0.3582051E-01
  -0.4477564E-01  -0.5373077E-01  -0.6268590E-01  -0.7164102E-01  -0.8059615E-01  -0.8955128E-01  -0.9850641E-01  -0.1074615E+00  -0.1164167E+00  -0.1253718E+00
  -0.1343269E+00  -0.1432820E+00  -0.1522372E+00  -0.1611923E+00  -0.1701474E+00  -0.1791026E+00  -0.1880577E+00  -0.1970128E+00  -0.2059679E+00  -0.2149231E+00
  -0.2238782E+00  -0.2328333E+00  -0.2417885E+00  -0.2417885E+00  -0.2417885E+00   0.2328333E+00   0.2238782E+00   0.2149231E+00   0.2059679E+00   0.1970128E+00
   0.1880577E+00   0.1791026E+00   0.1701474E+00   0.1611923E+00   0.1522372E+00   0.1432820E+00   0.1343269E+00   0.1253718E+00   0.1164167E+00   0.1074615E+00
   0.9850641E-01   0.8955128E-01   0.8059615E-01   0.7164102E-01   0.6268590E-01   0.5373077E-01   0.4477564E-01   0.3582051E-01   0.2686538E-01   0.1791026E-01
   0.8955128E-02  -0.3330669E-15  -0.8955128E-02  -0.1791026E-01  -0.2686538E-01  -0.3582051E-01  -0.4477564E-01  -0.5373077E-01  -0.6268590E-01  -0.7164102E-01
  -0.8059615E-01  -0.8955128E-01  -0.9850641E-01  -0.1074615E+00  -0.1164167E+00  -0.1253718E+00  -0.1343269E+00  -0.1432820E+00  -0.1522372E+00  -0.1611923E+00
  -0.1701474E+00  -0.1791026E+00  -0.1880577E+00  -0.1970128E+00  -0.2059679E+00  -0.2149231E+00  -0.2238782E+00  -0.2328333E+00  -0.2556049E+00  -0.2486967E+00
  -0.2486967E+00  -0.2556049E+00  -0.2832379E+00  -0.2763297E+00  -0.2694214E+00  -0.2901461E+00  -0.2901461E+00  -0.2694214E+00  -0.2763297E+00  -0.2832379E+00
  -0.2486967E+00  -0.2556049E+00  -0.2694214E+00  -0.2763297E+00  -0.2832379E+00  -0.2901461E+00  -0.2901461E+00  -0.2556049E+00  -0.2486967E+00  -0.2901461E+00
  -0.2901461E+00  -0.2901461E+00  -0.2901461E+00  -0.2556049E+00  -0.2486967E+00  -0.2486967E+00  -0.2556049E+00  -0.2832379E+00  -0.2763297E+00  -0.2694214E+00
  -0.2486967E+00  -0.2556049E+00  -0.2556049E+00  -0.2486967E+00   0.2486967E+00   0.2556049E+00   0.2556049E+00   0.2486967E+00   0.2486967E+00   0.2556049E+00
   0.2556049E+00   0.2486967E+00   0.2694214E+00   0.2763297E+00   0.2832379E+00   0.2832379E+00   0.2763297E+00   0.2694214E+00   0.2556049E+00   0.2486967E+00
   0.2832379E+00   0.2763297E+00   0.2694214E+00   0.2486967E+00   0.2556049E+00   0.2556049E+00   0.2486967E+00   0.2694214E+00   0.2763297E+00   0.2832379E+00
   0.2486967E+00   0.2556049E+00   0.2901461E+00   0.2901461E+00   0.2901461E+00   0.2901461E+00   0.2901461E+00   0.2901461E+00   0.2901461E+00   0.2901461E+00
   0.2901461E+00   0.2279302E+00   0.2332519E+00   0.2340147E+00   0.2104455E+00   0.2014904E+00   0.2014904E+00   0.1925353E+00   0.1835801E+00   0.1746250E+00
   0.1656699E+00   0.1567147E+00   0.1477596E+00   0.1388045E+00   0.1298494E+00   0.1208942E+00   0.1119391E+00   0.9402884E-01   0.9402884E-01   0.8507372E-01
   0.7611859E-01   0.6716346E-01   0.4925320E-01   0.4029808E-01   0.3134295E-01   0.2238782E-01   0.1343269E-01   0.4477564E-02  -0.4477564E-02  -0.1343269E-01
  -0.2238782E-01  -0.3134295E-01  -0.4029808E-01  -0.5820833E-01  -0.6716346E-01  -0.8507372E-01  -0.9402884E-01  -0.1029840E+00  -0.1298494E+00  -0.1388045E+00
  -0.1388045E+00  -0.1656699E+00  -0.1746250E+00  -0.1746250E+00  -0.1925353E+00  -0.2014904E+00  -0.2104455E+00  -0.2104455E+00  -0.2278315E+00  -0.1567147E+00
  -0.1208942E+00  -0.2340110E+00  -0.8507372E-01  -0.2332621E+00  -0.5820833E-01   0.2194006E+00   0.2238782E-01   0.2278301E+00   0.2194006E+00   0.2104455E+00
   0.1925353E+00   0.1835801E+00   0.1746250E+00   0.1656699E+00   0.1567147E+00   0.1477596E+00   0.1388045E+00   0.1298494E+00   0.1208942E+00   0.1119391E+00
   0.1029840E+00   0.1029840E+00   0.8507372E-01   0.7611859E-01   0.6716346E-01   0.5820833E-01   0.5820833E-01   0.4925320E-01   0.4029808E-01   0.3134295E-01
   0.1343269E-01   0.4477564E-02  -0.4477564E-02  -0.1343269E-01  -0.2238782E-01  -0.3134295E-01  -0.4029808E-01  -0.4925320E-01  -0.4925320E-01  -0.6716346E-01
  -0.7611859E-01  -0.7611859E-01  -0.9402884E-01  -0.1029840E+00  -0.1119391E+00  -0.1119391E+00  -0.1208942E+00  -0.1298494E+00  -0.1477596E+00  -0.1477596E+00
  -0.1567147E+00  -0.1656699E+00  -0.1835801E+00  -0.1835801E+00  -0.1925353E+00  -0.2014904E+00  -0.2194006E+00  -0.2194006E+00  -0.2279292E+00  -0.2240859E+00
  -0.1963735E+00  -0.1879693E+00  -0.1521796E+00  -0.1164094E+00  -0.1070334E+00  -0.9849548E-01  -0.7233706E-01  -0.4479943E-01  -0.3588372E-01  -0.2742441E-01
  -0.1846316E-01  -0.8975583E-02   0.5244332E-03   0.9528044E-02   0.3625300E-01   0.4485757E-01   0.5373616E-01   0.6268545E-01   0.7164065E-01   0.8059496E-01
   0.1069001E+00   0.1158634E+00   0.1253514E+00   0.1347521E+00   0.1433651E+00   0.1522652E+00   0.1616213E+00   0.1701667E+00   0.1786781E+00   0.1880411E+00
   0.2242164E+00   0.2690936E-01   0.1800894E-01   0.2149551E+00  -0.5426413E-01  -0.6340544E-01  -0.8131610E-01  -0.9013248E-01  -0.1163984E+00  -0.1258973E+00
  -0.1522617E+00  -0.1616246E+00  -0.2241850E+00  -0.2156123E+00  -0.2145062E+00  -0.2052689E+00  -0.2066783E+00  -0.1975495E+00  -0.1880835E+00  -0.1791057E+00
  -0.1790926E+00  -0.1702271E+00  -0.1701315E+00  -0.1607679E+00  -0.1432507E+00  -0.1433478E+00  -0.1348906E+00  -0.1338058E+00  -0.1248064E+00  -0.1078808E+00
  -0.9852779E-01  -0.8911659E-01  -0.7993224E-01  -0.7095117E-01  -0.6198082E-01  -0.5307002E-01  -0.4468447E-01  -0.3580031E-01  -0.2635288E-01  -0.1734533E-01
  -0.8927474E-02  -0.5412324E-03   0.8415043E-02   0.1787848E-01   0.2680334E-01   0.3539534E-01   0.4474355E-01   0.5372689E-01   0.6268554E-01   0.7164087E-01
   0.8060343E-01   0.8955044E-01   0.9851082E-01   0.8954671E-01   0.9841826E-01   0.1079760E+00   0.1169766E+00   0.1254002E+00   0.1339075E+00   0.1432491E+00
   0.1521752E+00   0.1607657E+00   0.1701303E+00   0.1795198E+00   0.1880803E+00   0.1965965E+00   0.1974421E+00   0.2060537E+00   0.2059420E+00   0.2149622E+00
   0.2239985E+00  -0.2350221E+00  -0.2350144E+00   0.2350146E+00   0.2350224E+00   0.2278356E+00   0.2340282E+00   0.2278533E+00   0.2104455E+00   0.2104455E+00
   0.2014904E+00   0.1925353E+00   0.1746250E+00   0.1746250E+00   0.1656699E+00   0.1477596E+00   0.1388045E+00   0.1298494E+00   0.1298494E+00   0.1208942E+00
   0.1029840E+00   0.1029840E+00   0.9402884E-01   0.7611859E-01   0.7611859E-01   0.5820833E-01   0.5820833E-01   0.4925320E-01   0.3134295E-01   0.2238782E-01
   0.4477564E-02   0.4477564E-02  -0.1343269E-01  -0.1343269E-01  -0.3134295E-01  -0.3134295E-01  -0.4925320E-01  -0.5820833E-01  -0.7611859E-01  -0.7611859E-01
  -0.8507372E-01  -0.9402884E-01  -0.1029840E+00  -0.1119391E+00  -0.1298494E+00  -0.1298494E+00  -0.1388045E+00  -0.1567147E+00  -0.1567147E+00  -0.1656699E+00
  -0.1835801E+00  -0.1835801E+00  -0.2014904E+00  -0.2332556E+00  -0.2340150E+00  -0.5820833E-01  -0.2104455E+00  -0.2194006E+00  -0.2278306E+00   0.2194006E+00
   0.2238782E-01   0.2332124E+00   0.2194006E+00   0.2014904E+00   0.1925353E+00   0.1835801E+00   0.1835801E+00   0.1656699E+00   0.1567147E+00   0.1567147E+00
   0.1477596E+00   0.1388045E+00   0.1208942E+00   0.1119391E+00   0.1119391E+00   0.9402884E-01   0.8507372E-01   0.8507372E-01   0.6716346E-01   0.6716346E-01
   0.4925320E-01   0.4029808E-01   0.4029808E-01   0.3134295E-01   0.1343269E-01   0.1343269E-01  -0.4477564E-02  -0.4477564E-02  -0.2238782E-01  -0.2238782E-01
  -0.4029808E-01  -0.4029808E-01  -0.4925320E-01  -0.6716346E-01  -0.6716346E-01  -0.8507372E-01  -0.9402884E-01  -0.1029840E+00  -0.1119391E+00  -0.1208942E+00
  -0.1208942E+00  -0.1388045E+00  -0.1477596E+00  -0.1477596E+00  -0.1656699E+00  -0.1746250E+00  -0.1746250E+00  -0.1925353E+00  -0.1925353E+00  -0.2014904E+00
  -0.2104455E+00  -0.2194006E+00  -0.2279294E+00  -0.2240002E+00  -0.2149351E+00  -0.2055412E+00  -0.1969315E+00  -0.1696163E+00  -0.1437114E+00  -0.1163541E+00
  -0.1074617E+00  -0.9856955E-01  -0.8998342E-01  -0.4483569E-01   0.3584366E-01   0.4435300E-01   0.8911765E-01   0.1164174E+00   0.1432819E+00   0.1522598E+00
   0.1616218E+00   0.1880584E+00   0.1975389E+00   0.1797245E-01  -0.2242282E+00  -0.2150411E+00  -0.6268600E-01  -0.2064042E+00  -0.1970379E+00  -0.1880438E+00
  -0.1791668E+00  -0.1880578E+00  -0.1790535E+00  -0.1706945E+00  -0.1617260E+00  -0.1522693E+00  -0.1606294E+00  -0.1522319E+00  -0.1428578E+00  -0.1343081E+00
  -0.1257970E+00  -0.1343443E+00  -0.1249438E+00  -0.1164496E+00  -0.1074657E+00  -0.9849091E-01  -0.8911780E-01  -0.8051521E-01  -0.7164359E-01  -0.8062966E-01
  -0.7164385E-01  -0.6268684E-01  -0.5372593E-01  -0.5373075E-01  -0.4474621E-01  -0.3624042E-01  -0.2688113E-01  -0.3539720E-01  -0.2684257E-01  -0.1748650E-01
  -0.8939865E-02  -0.1832796E-01  -0.8958203E-02  -0.5393312E-03   0.8405444E-02   0.5155199E-03   0.9527603E-02   0.1788413E-01   0.2686496E-01   0.2686517E-01
   0.3574034E-01   0.4520997E-01   0.5381315E-01   0.6269114E-01   0.5369881E-01   0.6268194E-01   0.7163955E-01   0.8060395E-01   0.7163626E-01   0.8051388E-01
   0.8998092E-01   0.9852615E-01   0.1070387E+00   0.9848897E-01   0.1078861E+00   0.1164147E+00   0.1258006E+00   0.1249505E+00   0.1343033E+00   0.1344076E+00
   0.1432868E+00   0.1521811E+00   0.1607677E+00   0.1701451E+00   0.1795203E+00   0.1701709E+00   0.1786871E+00   0.1880788E+00   0.1964687E+00   0.2052793E+00
   0.2142419E+00   0.2066540E+00   0.2157251E+00   0.2249677E+00   0.2234451E+00   0.2349993E+00  -0.2350148E+00  -0.2350219E+00   0.2350228E+00   0.2279308E+00
   0.2332642E+00   0.2340147E+00   0.2104455E+00   0.2104455E+00   0.2014904E+00   0.1925353E+00   0.1746250E+00   0.1746250E+00   0.1656699E+00   0.1477596E+00
   0.1477596E+00   0.1298494E+00   0.1298494E+00   0.1208942E+00   0.1029840E+00   0.1029840E+00   0.8507372E-01   0.8507372E-01   0.6716346E-01   0.6716346E-01
   0.4925320E-01   0.4925320E-01   0.3134295E-01   0.1343269E-01   0.1343269E-01   0.4477564E-02  -0.1343269E-01  -0.1343269E-01  -0.3134295E-01  -0.3134295E-01
  -0.4925320E-01  -0.6716346E-01  -0.6716346E-01  -0.9402884E-01  -0.9402884E-01  -0.1029840E+00  -0.1208942E+00  -0.1388045E+00  -0.1388045E+00  -0.1567147E+00
  -0.1656699E+00  -0.1835801E+00  -0.1835801E+00  -0.2014904E+00  -0.2014904E+00  -0.2104455E+00  -0.2278347E+00  -0.1567147E+00  -0.1208942E+00  -0.2332080E+00
  -0.8507372E-01  -0.2340791E+00  -0.5820833E-01   0.2194006E+00   0.2238782E-01   0.2278299E+00   0.2194006E+00   0.2014904E+00   0.1925353E+00   0.1835801E+00
   0.1835801E+00   0.1656699E+00   0.1567147E+00   0.1567147E+00   0.1388045E+00   0.1388045E+00   0.1208942E+00   0.1119391E+00   0.1119391E+00   0.9402884E-01
   0.9402884E-01   0.7611859E-01   0.7611859E-01   0.5820833E-01   0.5820833E-01   0.4029808E-01   0.4029808E-01   0.3134295E-01   0.2238782E-01   0.4477564E-02
  -0.4477564E-02  -0.4477564E-02  -0.2238782E-01  -0.2238782E-01  -0.4029808E-01  -0.4029808E-01  -0.4925320E-01  -0.5820833E-01  -0.7611859E-01  -0.7611859E-01
  -0.8507372E-01  -0.1029840E+00  -0.1119391E+00  -0.1119391E+00  -0.1298494E+00  -0.1298494E+00  -0.1477596E+00  -0.1477596E+00  -0.1656699E+00  -0.1746250E+00
  -0.1746250E+00  -0.1925353E+00  -0.1925353E+00  -0.2104455E+00  -0.2194006E+00  -0.2194006E+00  -0.2278526E+00  -0.2249392E+00  -0.2143822E+00  -0.1701473E+00
  -0.1067830E+00  -0.8059686E-01  -0.5366062E-01  -0.4477555E-01   0.3806131E-06   0.2616859E-01   0.3510776E-01   0.1170973E+00   0.1605014E+00   0.1875275E+00
   0.1969942E+00   0.2241851E+00  -0.8059408E-01  -0.1158646E+00  -0.1253492E+00  -0.1529307E+00  -0.1617727E+00  -0.2234293E+00  -0.2156210E+00  -0.2060036E+00
  -0.1970765E+00  -0.2058799E+00  -0.1969782E+00  -0.1886068E+00  -0.1796539E+00  -0.1875414E+00  -0.1785336E+00  -0.1701710E+00  -0.1607532E+00  -0.1515490E+00
  -0.1425634E+00  -0.1336710E+00  -0.1439636E+00  -0.1348568E+00  -0.1253441E+00  -0.1169585E+00  -0.1081476E+00  -0.9919241E-01  -0.9010090E-01  -0.9780793E-01
  -0.8890307E-01  -0.7111282E-01  -0.6211576E-01  -0.7218503E-01  -0.6322617E-01  -0.5376276E-01  -0.4477966E-01  -0.3588352E-01  -0.2729648E-01  -0.3580488E-01
  -0.2643111E-01  -0.1793540E-01  -0.8957129E-02  -0.1782727E-01  -0.8941061E-02   0.5964330E-05   0.8885610E-02   0.1725150E-01   0.8966178E-02   0.1842331E-01
   0.2753703E-01   0.3653437E-01   0.4407870E-01   0.5301920E-01   0.4547824E-01   0.5444882E-01   0.6198983E-01   0.7093845E-01   0.6338979E-01   0.7236105E-01
   0.8005867E-01   0.8950876E-01   0.8125765E-01   0.8964326E-01   0.9843945E-01   0.1068275E+00   0.9852917E-01   0.1080178E+00   0.1157300E+00   0.1248374E+00
   0.1343090E+00   0.1259480E+00   0.1343550E+00   0.1437314E+00   0.1529050E+00   0.1427325E+00   0.1515147E+00   0.1619084E+00   0.1708618E+00   0.1798069E+00
   0.1694500E+00   0.1784006E+00   0.1887086E+00   0.1970413E+00   0.2054347E+00   0.2144928E+00   0.2064869E+00   0.2156175E+00   0.2241150E+00  -0.2350232E+00
  -0.2349985E+00   0.2350146E+00   0.2350227E+00   0.2278305E+00   0.2332668E+00   0.2279300E+00   0.2104455E+00   0.2104455E+00   0.1925353E+00   0.1925353E+00
   0.1746250E+00   0.1656699E+00   0.1567147E+00   0.1567147E+00   0.1388045E+00   0.1388045E+00   0.1208942E+00   0.1119391E+00   0.1119391E+00   0.1029840E+00
   0.9402884E-01   0.8507372E-01   0.7611859E-01   0.6716346E-01   0.4925320E-01   0.4029808E-01   0.3134295E-01   0.2238782E-01   0.1343269E-01   0.4477564E-02
  -0.4477564E-02  -0.1343269E-01  -0.2238782E-01  -0.3134295E-01  -0.4029808E-01  -0.5820833E-01  -0.6716346E-01  -0.8507372E-01  -0.9402884E-01  -0.1029840E+00
  -0.1119391E+00  -0.1208942E+00  -0.1298494E+00  -0.1298494E+00  -0.1388045E+00  -0.1567147E+00  -0.1567147E+00  -0.1746250E+00  -0.1746250E+00  -0.1835801E+00
  -0.1925353E+00  -0.2332188E+00  -0.2340791E+00  -0.5820833E-01  -0.2104455E+00  -0.2194006E+00  -0.2278529E+00   0.2194006E+00   0.2238782E-01   0.2340101E+00
   0.2194006E+00   0.2014904E+00   0.2014904E+00   0.1835801E+00   0.1835801E+00   0.1746250E+00   0.1656699E+00   0.1477596E+00   0.1477596E+00   0.1298494E+00
   0.1298494E+00   0.1208942E+00   0.1029840E+00   0.9402884E-01   0.8507372E-01   0.7611859E-01   0.6716346E-01   0.5820833E-01   0.5820833E-01   0.4925320E-01
   0.4029808E-01   0.3134295E-01   0.1343269E-01   0.4477564E-02  -0.4477564E-02  -0.1343269E-01  -0.2238782E-01  -0.3134295E-01  -0.4029808E-01  -0.4925320E-01
  -0.4925320E-01  -0.6716346E-01  -0.7611859E-01  -0.7611859E-01  -0.8507372E-01  -0.9402884E-01  -0.1029840E+00  -0.1119391E+00  -0.1208942E+00  -0.1388045E+00
  -0.1477596E+00  -0.1477596E+00  -0.1656699E+00  -0.1656699E+00  -0.1835801E+00  -0.1925353E+00  -0.2014904E+00  -0.2014904E+00  -0.2104455E+00  -0.2194006E+00
  -0.2278356E+00  -0.2234926E+00  -0.2148659E+00  -0.2059671E+00  -0.1970065E+00  -0.1881230E+00  -0.1428528E+00  -0.1169462E+00  -0.1074789E+00  -0.9808362E-01
  -0.8953742E-01  -0.8114960E-01  -0.7234224E-01  -0.4434721E-01  -0.3580122E-01  -0.2728976E-01  -0.1792716E-01  -0.8430228E-02   0.6916060E-03   0.9676175E-02
   0.3582549E-01   0.4434610E-01   0.5369067E-01   0.6268091E-01   0.7164025E-01   0.8059556E-01   0.8957359E-01   0.9893818E-01   0.1259042E+00   0.1700824E+00
   0.1786710E+00   0.2749529E-01   0.1864923E-01  -0.2248526E+00  -0.2059700E+00  -0.2150138E+00  -0.5371482E-01  -0.6323631E-01  -0.1970126E+00  -0.1880273E+00
  -0.1785714E+00  -0.1694479E+00  -0.1797299E+00  -0.1708305E+00  -0.1605335E+00  -0.1521993E+00  -0.1617262E+00  -0.1522207E+00  -0.1436956E+00  -0.1343304E+00
  -0.1343059E+00  -0.1259300E+00  -0.1248554E+00  -0.1158566E+00  -0.1074331E+00  -0.9892545E-01  -0.8957084E-01  -0.8016150E-01  -0.7097108E-01  -0.6210431E-01
  -0.5370202E-01  -0.4519085E-01  -0.3583657E-01  -0.2644816E-01  -0.1788874E-01  -0.9502031E-02  -0.6943238E-03   0.8259059E-02   0.1722480E-01   0.2633255E-01
   0.3580246E-01   0.4519387E-01   0.5381003E-01   0.6269052E-01   0.7164042E-01   0.8059470E-01   0.8949437E-01   0.9808069E-01   0.1074375E+00   0.1075479E+00
   0.1164715E+00   0.1163531E+00   0.1248229E+00   0.1337954E+00   0.1432646E+00   0.1348950E+00   0.1433107E+00   0.1526632E+00   0.1518188E+00   0.1611653E+00
   0.1612730E+00   0.1701692E+00   0.1795342E+00   0.1880732E+00   0.1964620E+00   0.1880389E+00   0.1975395E+00   0.2052929E+00   0.2144758E+00   0.2066634E+00
   0.2156429E+00   0.2241204E+00   0.2241857E+00   0.2350148E+00  -0.2350233E+00  -0.2349985E+00   0.2350222E+00  -0.2481368E+00  -0.2483539E+00  -0.2624009E+00
  -0.2483620E+00  -0.2553691E+00  -0.2553977E+00  -0.2480151E+00  -0.2696261E+00  -0.2837831E+00  -0.2767449E+00  -0.2623455E+00  -0.2766705E+00  -0.2837765E+00
  -0.2696759E+00  -0.2838560E+00  -0.2771362E+00  -0.2702920E+00  -0.2770258E+00  -0.2624339E+00  -0.2695418E+00  -0.2548669E+00  -0.2627911E+00  -0.2549517E+00
  -0.2542417E+00  -0.2599112E+00  -0.2618204E+00  -0.2703034E+00  -0.2653993E+00  -0.2627187E+00  -0.2552641E+00  -0.2483652E+00  -0.2696866E+00  -0.2766774E+00
  -0.2835780E+00  -0.2838438E+00  -0.2837781E+00  -0.2766311E+00  -0.2627179E+00  -0.2695960E+00  -0.2483638E+00  -0.2552641E+00  -0.2481620E+00  -0.2481693E+00
  -0.2554939E+00  -0.2548223E+00  -0.2620824E+00  -0.2695220E+00  -0.2768305E+00  -0.2772418E+00  -0.2698522E+00  -0.2547959E+00  -0.2621107E+00  -0.2621530E+00
  -0.2703547E+00  -0.2619542E+00  -0.2638577E+00  -0.2901461E+00  -0.2901461E+00  -0.2901461E+00  -0.2901461E+00  -0.2901461E+00  -0.2901461E+00  -0.2901461E+00
  -0.2901461E+00  -0.2901461E+00  -0.2553714E+00  -0.2622461E+00  -0.2483526E+00  -0.2483650E+00  -0.2553685E+00  -0.2480908E+00  -0.2481671E+00  -0.2697622E+00
  -0.2838498E+00  -0.2766705E+00  -0.2623045E+00  -0.2835575E+00  -0.2838441E+00  -0.2696193E+00  -0.2765700E+00  -0.2694616E+00  -0.2770219E+00  -0.2770824E+00
  -0.2626292E+00  -0.2698263E+00  -0.2552960E+00  -0.2548938E+00  -0.2546733E+00  -0.2626284E+00  -0.2612855E+00  -0.2621194E+00  -0.2702501E+00  -0.2636326E+00
  -0.2695710E+00  -0.2622397E+00  -0.2483624E+00  -0.2552541E+00  -0.2837802E+00  -0.2837038E+00  -0.2837064E+00  -0.2766705E+00  -0.2765567E+00  -0.2482309E+00
  -0.2623046E+00  -0.2696049E+00  -0.2480852E+00  -0.2552641E+00  -0.2481698E+00  -0.2548898E+00  -0.2625934E+00  -0.2553873E+00  -0.2692811E+00  -0.2767611E+00
  -0.2770753E+00  -0.2550346E+00  -0.2621309E+00  -0.2699248E+00  -0.2627830E+00  -0.2704836E+00  -0.2607530E+00  -0.2640178E+00   0.2385209E+00   0.2286416E+00
   0.2457642E+00   0.2194006E+00   0.2014904E+00   0.2014886E+00   0.1925142E+00   0.1835801E+00   0.1656699E+00   0.1656660E+00   0.1477614E+00   0.1477596E+00
   0.1387733E+00   0.1298803E+00   0.1208627E+00   0.1029811E+00   0.1029840E+00   0.9402884E-01   0.7611859E-01   0.7612020E-01   0.5821295E-01   0.5820833E-01
   0.4033232E-01  -0.1346578E-01  -0.3134295E-01  -0.4925058E-01  -0.4925320E-01  -0.6716346E-01  -0.6715678E-01  -0.8503983E-01  -0.8510513E-01  -0.9399769E-01
  -0.2450241E+00  -0.2390405E+00  -0.1298494E+00  -0.2194006E+00  -0.2287267E+00  -0.4033120E-01  -0.2385359E+00  -0.2463144E+00   0.4026673E-01   0.2289673E+00
   0.2235594E-01   0.2392713E+00   0.1346243E-01   0.2194167E+00   0.4447694E-02   0.2104455E+00  -0.4477564E-02   0.2104311E+00  -0.2238739E-01   0.1925558E+00
   0.1835819E+00   0.1746605E+00   0.1745899E+00   0.1567367E+00   0.1566936E+00   0.1388365E+00   0.1298189E+00   0.1209247E+00   0.1119391E+00   0.1119349E+00
   0.9402581E-01   0.8505249E-01   0.8509386E-01   0.6713013E-01   0.6719716E-01   0.4925320E-01   0.4925670E-01   0.3137195E-01   0.3131164E-01   0.2241823E-01
   0.1340214E-01  -0.1119718E+00   0.4508097E-02  -0.1208932E+00  -0.4508112E-02  -0.1340182E-01  -0.2238782E-01  -0.3134283E-01  -0.1388045E+00  -0.4026720E-01
  -0.5820833E-01  -0.1477629E+00  -0.5821258E-01  -0.7611961E-01  -0.1566820E+00  -0.7611859E-01  -0.9405898E-01  -0.1656995E+00  -0.1029550E+00  -0.1030154E+00
  -0.1745951E+00  -0.1119083E+00  -0.1208942E+00  -0.1836112E+00  -0.1298543E+00  -0.1388019E+00  -0.1925378E+00  -0.1477596E+00  -0.1567473E+00  -0.2015133E+00
  -0.1656395E+00  -0.1746556E+00  -0.2104693E+00  -0.1835492E+00  -0.1925353E+00  -0.2194075E+00  -0.2014683E+00  -0.2104202E+00  -0.2290640E+00   0.2467584E+00
  -0.2051350E+00  -0.2139684E+00  -0.2223970E+00  -0.1962451E+00  -0.1880407E+00  -0.1791028E+00  -0.1701485E+00  -0.2067119E+00  -0.1611917E+00  -0.1522383E+00
  -0.1977023E+00  -0.1438656E+00  -0.1343422E+00  -0.1881109E+00  -0.1247951E+00  -0.1164009E+00  -0.1791040E+00  -0.1074594E+00  -0.1701477E+00  -0.9848794E-01
  -0.1611932E+00  -0.1521988E+00  -0.1427233E+00  -0.3577633E-01  -0.2628168E-01  -0.1789438E-01  -0.8955416E-02  -0.1039580E-05  -0.1164550E+00  -0.1074603E+00
   0.8954649E-02   0.1790914E-01   0.2686515E-01   0.8885428E-01   0.1164167E+00   0.1253678E+00   0.1343258E+00   0.1791444E+00   0.1887558E+00  -0.2147830E-05
   0.2141194E+00   0.8954221E-02   0.2389929E+00   0.1790995E-01   0.2686447E-01   0.2226242E+00   0.3584028E-01   0.4477536E-01  -0.2376184E+00  -0.2242462E+00
  -0.2156001E+00  -0.1343120E+00  -0.1259294E+00  -0.2341664E+00  -0.9850738E-01  -0.8953170E-01  -0.8059644E-01  -0.8955148E-01  -0.8053611E-01  -0.7220092E-01
  -0.6269680E-01  -0.7107786E-01  -0.6267095E-01  -0.5315532E-01  -0.4475872E-01  -0.5429182E-01  -0.4482667E-01  -0.3582198E-01  -0.2742561E-01  -0.1796289E-01
  -0.8955682E-02   0.3581947E-01   0.4484149E-01   0.5431431E-01   0.6270182E-01   0.5317370E-01   0.6265398E-01   0.7169971E-01   0.8127093E-01   0.7164029E-01
   0.7986967E-01   0.9029924E-01   0.9852328E-01   0.1068804E+00   0.9848965E-01   0.1080317E+00   0.1163556E+00   0.1253702E+00   0.1343454E+00   0.1432818E+00
   0.1515121E+00   0.1433206E+00   0.1529334E+00   0.1604891E+00   0.1700657E+00   0.1619190E+00   0.1701645E+00   0.1790998E+00   0.1873542E+00   0.1963186E+00
   0.2058938E+00   0.1977352E+00   0.2059679E+00   0.2153969E+00   0.2238782E+00   0.2369294E+00   0.2530629E+00  -0.2528852E+00   0.2299025E+00  -0.2295158E+00
   0.2325054E+00   0.2385528E+00   0.2447405E+00   0.2382171E+00   0.2291461E+00   0.2194006E+00   0.2194006E+00   0.2014904E+00   0.1925413E+00   0.1925353E+00
   0.1835801E+00   0.1656957E+00   0.1656438E+00   0.1477841E+00   0.1477347E+00   0.1388045E+00   0.1208942E+00   0.1208942E+00   0.1029840E+00   0.1029844E+00
   0.9400586E-01   0.8507372E-01   0.6716346E-01   0.5821106E-01   0.4925320E-01   0.4033292E-01   0.4029808E-01   0.1343269E-01   0.1343269E-01  -0.4477564E-02
  -0.4445023E-02  -0.2238670E-01  -0.3131639E-01  -0.4922992E-01  -0.4927861E-01  -0.6715741E-01  -0.6716346E-01  -0.8507372E-01  -0.8503988E-01  -0.9402884E-01
  -0.1119135E+00  -0.1119631E+00  -0.1298494E+00  -0.1388045E+00  -0.1567147E+00  -0.1656699E+00  -0.1656699E+00  -0.1835801E+00  -0.1925353E+00  -0.1925353E+00
  -0.2014904E+00  -0.2450212E+00  -0.2385444E+00  -0.1298508E+00  -0.2194006E+00  -0.2290710E+00  -0.4026721E-01  -0.2463889E+00   0.2238782E-01   0.2284084E+00
   0.2104455E+00   0.2104453E+00   0.2015111E+00   0.1836138E+00   0.1746250E+00   0.1746198E+00   0.1567436E+00   0.1566910E+00   0.1388004E+00   0.1298839E+00
   0.1298494E+00   0.1119391E+00   0.1119050E+00   0.9405317E-01   0.8509538E-01   0.7612207E-01   0.7611859E-01   0.6719809E-01   0.5820833E-01   0.4925717E-01
   0.3134295E-01   0.3134295E-01   0.2238782E-01   0.4477564E-02   0.4477564E-02  -0.1343269E-01  -0.1343269E-01  -0.2238782E-01  -0.3137079E-01  -0.4032180E-01