 TITLE = "magnetization"
 VARIABLES = "X","Y","Z","Mx","My","Mz", "SD"
 ZONE T="",  N=9566,  E=49697
 F=FEBLOCK, ET=TETRAHEDRON, VARLOCATION=([7]=CELLCENTERED)
   0.2901461E+00   0.2901461E+00   0.2901461E+00   0.2901461E+00   0.2417885E+00   0.2417885E+00  -0.2417885E+00  -0.2417885E+00   0.2417885E+00   0.2417885E+00